# vtk DataFile Version 2.0
PFLOTRAN output
ASCII
DATASET UNSTRUCTURED_GRID
POINTS 2121 double
-0.5 -0.5 0.0
-0.5 -0.4006266052619 0.0
-0.5 -0.25 0.0
-0.5 -0.1069484759774 0.0
-0.5 0.0 0.0
-0.5 0.100261681969 0.0
-0.5 0.25 0.0
-0.5 0.3894629522908 0.0
-0.5 0.5 0.0
-0.4580379694378 -0.1069484759774 0.0
-0.4561094100714 0.3894629522908 0.0
-0.4523847282472 0.100261681969 0.0
-0.4417263778841 -0.4006266052619 0.0
-0.4258969295397 -0.2038850565231 0.0
-0.4235487770211 0.0001414264315063 0.0
-0.4234867926193 0.2754838455233 0.0
-0.41320345009 0.1824332932433 0.0
-0.4109149650676 -0.3091832071433 0.0
-0.3949605836429 -0.116154330233 0.0
-0.3874964597118 0.09383440513285 0.0
-0.3837281002095 0.4052823488176 0.0
-0.3765345679414 0.3321662325009 0.0
-0.3673828079831 0.5 0.0
-0.3660156204365 -0.5 0.0
-0.3637211540588 -0.3998769866605 0.0
-0.3574777123514 -0.2208758463895 0.0
-0.352473458886 0.2406622666163 0.0
-0.351521104076 -0.04420534099654 0.0
-0.3395288730799 -0.3171120556272 0.0
-0.3364702016613 0.04671580407598 0.0
-0.3359008763542 -0.1281050511704 0.0
-0.3309785461965 0.1501548149492 0.0
-0.3257213757533 0.4270716544136 0.0
-0.3229391888404 0.3235318520069 0.0
-0.2966176421037 0.2433840305636 0.0
-0.2938726545118 -0.01986224682546 0.0
-0.2905959532937 -0.3820939765938 0.0
-0.2864733934318 -0.271039384095 0.0
-0.2830320797314 -0.1679260153633 0.0
-0.282720530436 -0.4466125190248 0.0
-0.2788905465719 0.3745904503179 0.0
-0.2782472118234 -0.08948403525766 0.0
-0.2722283032194 -0.2211076318948 0.0
-0.271172510311 -0.3267556620555 0.0
-0.2670796069436 0.3138513817018 0.0
-0.2637860773845 0.09176763287599 0.0
-0.2604003824642 -0.5 0.0
-0.2598256268755 0.2009212008327 0.0
-0.2563120392669 0.02823483409444 0.0
-0.2474350933166 0.4310056987496 0.0
-0.2459838085904 0.1501428729155 0.0
-0.2380934476191 0.2616779275285 0.0
-0.2363742227744 -0.1417724819486 0.0
-0.2347656159661 0.5 0.0
-0.2294287305953 -0.04069121290769 0.0
-0.2272499789383 -0.3585803464344 0.0
-0.2260557759771 -0.408583266165 0.0
-0.2247258175098 0.3683238458867 0.0
-0.2242953804096 -0.3001206804958 0.0
-0.2179425311109 -0.1983530580678 0.0
-0.212760529266 -0.09963457260674 0.0
-0.2112873554103 -0.2529444750127 0.0
-0.2106288527709 -0.5 0.0
-0.2106288527709 -0.4607447456917 0.0
-0.2098174446699 0.3133037847975 0.0
-0.207108474536 0.2321074602492 0.0
-0.2043414421881 0.05590514315151 0.0
-0.198794396584 0.1347739292536 0.0
-0.1980219269587 0.1864506504526 0.0
-0.1937588197182 0.4643865545604 0.0
-0.1937588197182 0.5 0.0
-0.1905591962577 0.4184870010119 0.0
-0.1885323567663 0.006819317178694 0.0
-0.1885051263419 -0.1516126760329 0.0
-0.1882607344353 0.09768219162487 0.0
-0.1838607296877 -0.3311283360172 0.0
-0.1793539077462 0.2810437485296 0.0
-0.1739547742321 -0.06943143486209 0.0
-0.1710586185603 0.3748895098859 0.0
-0.1701584273468 -0.2246374108147 0.0
-0.1684229303736 -0.4202093105993 0.0
-0.1682664713719 -0.2915989230002 0.0
-0.1665537265263 0.3336511388517 0.0
-0.1649071394499 -0.03036443386179 0.0
-0.1628600094134 -0.3737509473711 0.0
-0.162693083793 -0.190064411846 0.0
-0.1618342036585 -0.1188141680609 0.0
-0.1565303495001 0.2344828218841 0.0
-0.154785144492 -0.5 0.0
-0.1493884250172 0.07158958985588 0.0
-0.1463591218693 -0.2588716523506 0.0
-0.145651509269 0.03273123431543 0.0
-0.1445985678126 0.1707141998043 0.0
-0.1445312378927 0.5 0.0
-0.143159929407 0.461304250602 0.0
-0.142037557187 0.3983987787642 0.0
-0.1417170043498 0.1362381439135 0.0
-0.1401969421124 0.2064678296713 0.0
-0.1399917513977 -0.4634985401957 0.0
-0.1333852434721 0.4294082077644 0.0
-0.1333532308118 -0.3277544712557 0.0
-0.1330537407417 0.265511275263 0.0
-0.1324487393061 -0.08762387610684 0.0
-0.1285873397346 0.108393008994 0.0
-0.1282064161692 -0.1628466241928 0.0
-0.1278490213552 -0.008160065227971 0.0
-0.1248862171895 0.3033447373852 0.0
-0.1194627840039 -0.4280222498675 0.0
-0.1190469075842 0.3649974445987 0.0
-0.1159660080293 -0.2141856203385 0.0
-0.1132673858544 -0.04643477279187 0.0
-0.1127965223878 -0.3924005734111 0.0
-0.1124849927244 -0.1213702522818 0.0
-0.1110985765482 -0.2900519279043 0.0
-0.1090161157309 -0.3545409292663 0.0
-0.1075797246789 0.331665166846 0.0
-0.1028211385152 0.09014240067247 0.0
-0.1014011414103 0.2369422229301 0.0
-0.1013948193305 0.05684799488821 0.0
-0.0990722519694 -0.5 0.0
-0.0990722519694 0.5 0.0
-0.09862748605061 0.2002410808308 0.0
-0.09848472647633 0.01719423003222 0.0
-0.09821395665854 -0.2494191657218 0.0
-0.09781686055318 0.1619670670537 0.0
-0.09765115120433 0.4082365598169 0.0
-0.09557063636509 0.4493638188375 0.0
-0.09477085329265 0.27336072664 0.0
-0.09454034602273 -0.08458213865636 0.0
-0.08987143414315 -0.4507843723523 0.0
-0.08807455517321 -0.4792268776972 0.0
-0.08699569878933 -0.3172280057903 0.0
-0.08684466658679 -0.1849109908451 0.0
-0.08595775434247 0.1309967260578 0.0
-0.08544028240186 -0.1518660661003 0.0
-0.07377586933785 -0.1255174373602 0.0
-0.07272775380688 0.3827219396745 0.0
-0.0724848639425 -0.4230237875692 0.0
-0.0721781454737 0.4753705122087 0.0
-0.07121580570811 -0.5 0.0
-0.06824897675009 0.2969349896172 0.0
-0.06810137053981 -0.2154939468395 0.0
-0.06694066051717 0.3586539527887 0.0
-0.06692007630752 -0.3650757199078 0.0
-0.06492022830485 -0.2675224333131 0.0
-0.06201034399148 -0.02049752963831 0.0
-0.06200386558181 0.3327699727225 0.0
-0.06188275720414 0.04148197016555 0.0
-0.06063050680798 -0.3374350275705 0.0
-0.06028550617534 0.1875534701288 0.0
-0.05890301599368 -0.07841884345467 0.0
-0.05885852363616 -0.04792919588256 0.0
-0.05882741685333 0.08923152153002 0.0
-0.05823951933172 0.003378786890317 0.0
-0.05707080391975 -0.4705102945708 0.0
-0.05563193924228 -0.2410481787371 0.0
-0.05361326604607 0.5 0.0
-0.05288082990807 0.2311167903713 0.0
-0.05258551250808 -0.2908577695347 0.0
-0.05240938929331 -0.166289320928 0.0
-0.05239345253752 0.06458221311196 0.0
-0.0521599053669 -0.1105099060288 0.0
-0.052063038297 0.2633021606393 0.0
-0.05021567928146 -0.4011142932392 0.0
-0.04827021266979 0.4238157704976 0.0
-0.0475970981786 0.3039714571 0.0
-0.04717881179862 0.4501702320707 0.0
-0.04527164704755 -0.4398323956323 0.0
-0.04470894277563 -0.2029436422 0.0
-0.04459720641016 -0.1836466330127 0.0
-0.04335935944682 -0.5 0.0
-0.04274871479398 0.1637673788489 0.0
-0.04228359977381 -0.1425030441793 0.0
-0.04183597274052 0.1278436226897 0.0
-0.03968173933763 0.4029074251539 0.0
-0.03733761771802 0.4684096133666 0.0
-0.03684191355679 -0.3156318715087 0.0
-0.03608540237756 0.02712832715698 0.0
-0.03568029921465 -0.3482108334429 0.0
-0.03407557690849 0.1020186663393 0.0
-0.03372037170234 -0.2267605505189 0.0
-0.03333476720608 0.3837580124081 0.0
-0.03316809252437 -0.3713310338923 0.0
-0.03202922520938 -0.4766301378039 0.0
-0.03187968461669 0.3517134667877 0.0
-0.03107208328911 0.2154368141125 0.0
-0.03098767924167 -0.1063153898451 0.0
-0.03045158257526 -0.249403459764 0.0
-0.02865273346134 -0.2714629495734 0.0
-0.02810879082594 0.007885817934671 0.0
-0.0278223023274 -0.1665323927541 0.0
-0.02708884839329 0.2569417158766 0.0
-0.02635278139531 -0.04394482478672 0.0
-0.02576208329431 0.4817681949345 0.0
-0.0256873641613 0.0800112265244 0.0
-0.02484393950854 -0.07116041476257 0.0
-0.02416934001134 -0.02144997213546 0.0
-0.02357878595546 0.05182808735045 0.0
-0.02285154624832 0.5 0.0
-0.02221762637878 -0.3953389687272 0.0
-0.02205545271199 -0.2916355516266 0.0
-0.02201994441445 0.1920064162859 0.0
-0.02184402759732 0.3196182900483 0.0
-0.02171544662029 -0.09263114854087 0.0
-0.02081037958929 -0.4222352631782 0.0
-0.02045191825857 0.2827577939282 0.0
-0.02025714220597 0.4316581645545 0.0
-0.01958038299187 -0.1894005544221 0.0
-0.01884495685997 -0.2106276838899 0.0
-0.01883735687511 -0.1309689791054 0.0
-0.01696004875558 0.2397748217402 0.0
-0.01602000212055 -0.4609063405885 0.0
0.0 -0.5 0.0
0.0 -0.475 0.0
0.0 -0.45 0.0
0.0 -0.425 0.0
0.0 -0.4 0.0
0.0 -0.375 0.0
0.0 -0.35 0.0
0.0 -0.325 0.0
0.0 -0.3 0.0
0.0 -0.275 0.0
0.0 -0.25 0.0
0.0 -0.225 0.0
0.0 -0.2 0.0
0.0 -0.175 0.0
0.0 -0.15 0.0
0.0 -0.125 0.0
0.0 -0.1 0.0
0.0 -0.075 0.0
0.0 -0.05 0.0
0.0 -0.025 0.0
0.0 1.110223024625e-16 0.0
0.0 0.025 0.0
0.0 0.05 0.0
0.0 0.075 0.0
0.0 0.1 0.0
0.0 0.125 0.0
0.0 0.15 0.0
0.0 0.175 0.0
0.0 0.2 0.0
0.0 0.225 0.0
0.0 0.25 0.0
0.0 0.275 0.0
0.0 0.3 0.0
0.0 0.325 0.0
0.0 0.35 0.0
0.0 0.375 0.0
0.0 0.4 0.0
0.0 0.425 0.0
0.0 0.45 0.0
0.0 0.475 0.0
0.0 0.5 0.0
0.0156798526955 0.4490481430831 0.0
0.01571396688285 -0.3366800616765 0.0
0.01692606682909 0.1610421534248 0.0
0.01728743236635 0.4793021068373 0.0
0.01728743236635 0.5 0.0
0.01801960700862 0.3653262271242 0.0
0.01816408014867 -0.5 0.0
0.01866925833808 0.08254337989281 0.0
0.01883674587732 0.1085046886129 0.0
0.0213624643004 0.1379794758368 0.0
0.02212692767878 -0.3886240932115 0.0
0.02213733890825 0.3426617548262 0.0
0.02342092507177 -0.182707836296 0.0
0.02421518734992 0.2208839005994 0.0
0.02502889697049 -0.1289594671254 0.0
0.02581261452175 0.3855399089833 0.0
0.02618969799402 -0.04167912773993 0.0
0.02647102952956 -0.2949930785492 0.0
0.02659795261884 -0.2166378381408 0.0
0.0270069370636 -0.2412224400238 0.0
0.02714584059192 0.4072794004074 0.0
0.02738288292759 -0.264439503075 0.0
0.02771854527128 -0.4420050222861 0.0
0.02790118482733 0.3138596861919 0.0
0.02816315410228 -0.0835003308583 0.0
0.02903761600216 -0.3170639731302 0.0
0.02946385463431 0.2937133184571 0.0
0.03294446843827 0.04426159689936 0.0
0.03306267171515 -0.4812791400304 0.0
0.03359071934991 0.002999267711917 0.0
0.03394731067995 -0.3613261145423 0.0
0.03431965182438 0.1818770390602 0.0
0.03698054143563 -0.1099938773946 0.0
0.03816167422119 -0.01726411863762 0.0
0.03850076547343 0.06712978483391 0.0
0.03872778285304 -0.4129647218122 0.0
0.03912102518334 0.4352051000016 0.0
0.0417389570135 0.4650402019121 0.0
0.04283656884652 0.2722436768382 0.0
0.04334760586398 0.3321127508667 0.0
0.04424574529177 0.0948904449712 0.0
0.04448244042007 0.5 0.0
0.04472518933064 0.2423059969642 0.0
0.04563405246007 0.3565560755644 0.0
[...]
POINT_DATA     2121
SCALARS Liquid_Pressure      float 1
LOOKUP_TABLE default
 2.000000E+06  2.000000E+06  2.000000E+06  2.000000E+06  2.000000E+06  2.000000E+06  2.000000E+06  2.000000E+06  2.000000E+06  1.950645E+06
 1.948377E+06  1.943996E+06  1.931460E+06  1.912841E+06  1.910079E+06  1.910006E+06  1.897910E+06  1.895219E+06  1.876453E+06  1.867673E+06
 1.863240E+06  1.854779E+06  1.844014E+06  1.842406E+06  1.839707E+06  1.832363E+06  1.826477E+06  1.825357E+06  1.811251E+06  1.807653E+06
 1.806983E+06  1.801193E+06  1.795009E+06  1.791736E+06  1.760774E+06  1.757545E+06  1.753691E+06  1.748842E+06  1.744793E+06  1.744427E+06
 1.739922E+06  1.739165E+06  1.732085E+06  1.730843E+06  1.726028E+06  1.722154E+06  1.718171E+06  1.717495E+06  1.713362E+06  1.702920E+06
 1.701212E+06  1.691930E+06  1.689908E+06  1.688016E+06  1.681738E+06  1.679175E+06  1.677770E+06  1.676205E+06  1.675699E+06  1.668226E+06
 1.662130E+06  1.660397E+06  1.659622E+06  1.659622E+06  1.658668E+06  1.655481E+06  1.652226E+06  1.645700E+06  1.644792E+06  1.639777E+06
 1.639777E+06  1.636013E+06  1.633628E+06  1.633596E+06  1.633309E+06  1.628133E+06  1.622831E+06  1.616479E+06  1.613072E+06  1.612013E+06
 1.609972E+06  1.609788E+06  1.607773E+06  1.605836E+06  1.603427E+06  1.603231E+06  1.602221E+06  1.595981E+06  1.593928E+06  1.587579E+06
 1.584016E+06  1.583183E+06  1.581944E+06  1.581865E+06  1.580252E+06  1.578932E+06  1.578554E+06  1.576766E+06  1.576525E+06  1.568753E+06
 1.568715E+06  1.568363E+06  1.567651E+06  1.563108E+06  1.562660E+06  1.562240E+06  1.558754E+06  1.552374E+06  1.551885E+06  1.548260E+06
 1.545085E+06  1.544531E+06  1.544165E+06  1.542534E+06  1.540084E+06  1.538394E+06  1.532796E+06  1.531125E+06  1.531118E+06  1.528386E+06
 1.528386E+06  1.527862E+06  1.527694E+06  1.527376E+06  1.526909E+06  1.526714E+06  1.524266E+06  1.523325E+06  1.523054E+06  1.517561E+06
 1.515447E+06  1.514178E+06  1.514000E+06  1.512957E+06  1.512348E+06  1.498625E+06  1.497392E+06  1.497107E+06  1.496746E+06  1.495614E+06
 1.492123E+06  1.491949E+06  1.490584E+06  1.490560E+06  1.488207E+06  1.484783E+06  1.484776E+06  1.484633E+06  1.483160E+06  1.482754E+06
 1.481128E+06  1.481075E+06  1.481039E+06  1.480347E+06  1.478972E+06  1.477279E+06  1.474904E+06  1.474043E+06  1.473695E+06  1.473488E+06
 1.473469E+06  1.473195E+06  1.473081E+06  1.470907E+06  1.468618E+06  1.467826E+06  1.467334E+06  1.465091E+06  1.464429E+06  1.464297E+06
 1.462841E+06  1.462122E+06  1.461575E+06  1.461049E+06  1.458514E+06  1.455756E+06  1.455173E+06  1.454283E+06  1.453806E+06  1.451918E+06
 1.451501E+06  1.451047E+06  1.450851E+06  1.449511E+06  1.449335E+06  1.448385E+06  1.448286E+06  1.447655E+06  1.445538E+06  1.444899E+06
 1.444561E+06  1.443699E+06  1.442833E+06  1.442138E+06  1.442050E+06  1.441057E+06  1.440264E+06  1.439569E+06  1.438713E+06  1.437968E+06
 1.437777E+06  1.437735E+06  1.437528E+06  1.437377E+06  1.436312E+06  1.435890E+06  1.435661E+06  1.434865E+06  1.434000E+06  1.433991E+06
 1.431782E+06  1.430676E+06  1.411828E+06  1.411828E+06  1.411828E+06  1.411828E+06  1.411828E+06  1.411828E+06  1.411828E+06  1.411828E+06
 1.411828E+06  1.411828E+06  1.411828E+06  1.411828E+06  1.411828E+06  1.411828E+06  1.411828E+06  1.411828E+06  1.411828E+06  1.411828E+06
 1.411828E+06  1.411828E+06  1.411828E+06  1.411828E+06  1.411828E+06  1.411828E+06  1.411828E+06  1.411828E+06  1.411828E+06  1.411828E+06
 1.411828E+06  1.411828E+06  1.411828E+06  1.411828E+06  1.411828E+06  1.411828E+06  1.411828E+06  1.411828E+06  1.411828E+06  1.411828E+06
 1.411828E+06  1.411828E+06  1.411828E+06  1.411828E+06  1.411828E+06  1.411828E+06  1.411828E+06  1.411828E+06  1.411828E+06  1.411828E+06
 1.411828E+06  1.411828E+06  1.411828E+06  1.411828E+06  1.411828E+06  1.411828E+06  1.411828E+06  1.411828E+06  1.411828E+06  1.411828E+06
 1.411828E+06  1.411828E+06  1.411828E+06  1.411828E+06  1.411828E+06  1.411828E+06  1.411828E+06  1.411828E+06  1.411828E+06  1.411828E+06
 1.411828E+06  1.411828E+06  1.411828E+06  1.411828E+06  1.411828E+06  1.411828E+06  1.411828E+06  1.411828E+06  1.411828E+06  1.411828E+06
 1.411828E+06  1.411828E+06  1.411828E+06  1.411828E+06  1.411828E+06  1.411828E+06  1.411828E+06  1.411828E+06  1.411828E+06  1.411828E+06
 1.411828E+06  1.411828E+06  1.411828E+06  1.411828E+06  1.411828E+06  1.411828E+06  1.411828E+06  1.411828E+06  1.411828E+06  1.411828E+06
 1.411828E+06  1.411828E+06  1.411828E+06  1.411828E+06  1.411828E+06  1.411828E+06  1.411828E+06  1.411828E+06  1.411828E+06  1.411828E+06
 1.411828E+06  1.411828E+06  1.411828E+06  1.411828E+06  1.411828E+06  1.411828E+06  1.411828E+06  1.411828E+06  1.411828E+06  1.411828E+06
 1.411828E+06  1.411828E+06  1.411828E+06  1.411828E+06  1.411828E+06  1.411828E+06  1.411828E+06  1.411828E+06  1.411828E+06  1.411828E+06
 1.411828E+06  1.411828E+06  1.411828E+06  1.411828E+06  1.411828E+06  1.411828E+06  1.411828E+06  1.411828E+06  1.411828E+06  1.411828E+06
 1.411828E+06  1.411828E+06  1.411828E+06  1.411828E+06  1.411828E+06  1.411828E+06  1.411828E+06  1.411828E+06  1.411828E+06  1.411828E+06
 1.411828E+06  1.411828E+06  1.411828E+06  1.411828E+06  1.411828E+06  1.411828E+06  1.411828E+06  1.411828E+06  1.411828E+06  1.411828E+06
 1.411828E+06  1.411828E+06  1.411828E+06  1.411828E+06  1.411828E+06  1.411828E+06  1.411828E+06  1.411828E+06  1.411828E+06  1.411828E+06
 1.411828E+06  1.411828E+06  1.411828E+06  1.411828E+06  1.411828E+06  1.411828E+06  1.411828E+06  1.411828E+06  1.411828E+06  1.411828E+06
 1.411828E+06  1.411828E+06  1.411828E+06  1.411828E+06  1.411828E+06  1.411828E+06  1.411828E+06  1.411828E+06  1.411828E+06  1.411828E+06
 1.411828E+06  1.411828E+06  1.411828E+06  1.411828E+06  1.411828E+06  1.411828E+06  1.411828E+06  1.411828E+06  1.411828E+06  1.411828E+06
 1.411828E+06  1.411828E+06  1.411828E+06  1.411828E+06  1.411828E+06  1.411828E+06  1.411828E+06  1.411828E+06  1.411828E+06  1.411828E+06
 1.411828E+06  1.411828E+06  1.411828E+06  1.411828E+06  1.411828E+06  1.411828E+06  1.411828E+06  1.411828E+06  1.294172E+06  1.294172E+06
 1.294172E+06  1.294172E+06  1.294172E+06  1.294172E+06  1.294172E+06  1.294172E+06  1.294172E+06  1.294172E+06  1.294172E+06  1.294172E+06
 1.294172E+06  1.294172E+06  1.294172E+06  1.294172E+06  1.294172E+06  1.294172E+06  1.294172E+06  1.294172E+06  1.294172E+06  1.294172E+06
 1.294172E+06  1.294172E+06  1.294172E+06  1.294172E+06  1.294172E+06  1.294172E+06  1.294172E+06  1.294172E+06  1.294172E+06  1.294172E+06
 1.294172E+06  1.294172E+06  1.294172E+06  1.294172E+06  1.294172E+06  1.294172E+06  1.294172E+06  1.294172E+06  1.294172E+06  1.294172E+06
 1.294172E+06  1.294172E+06  1.294172E+06  1.294172E+06  1.294172E+06  1.294172E+06  1.294172E+06  1.294172E+06  1.294172E+06  1.294172E+06
 1.294172E+06  1.294172E+06  1.294172E+06  1.294172E+06  1.294172E+06  1.294172E+06  1.294172E+06  1.294172E+06  1.294172E+06  1.294172E+06
 1.294172E+06  1.294172E+06  1.294172E+06  1.294172E+06  1.294172E+06  1.294172E+06  1.294172E+06  1.294172E+06  1.294172E+06  1.294172E+06
 1.294172E+06  1.294172E+06  1.294172E+06  1.294172E+06  1.294172E+06  1.294172E+06  1.294172E+06  1.294172E+06  1.294172E+06  1.294172E+06
 1.294172E+06  1.294172E+06  1.294172E+06  1.294172E+06  1.294172E+06  1.294172E+06  1.294172E+06  1.294172E+06  1.294172E+06  1.294172E+06
 1.294172E+06  1.294172E+06  1.294172E+06  1.294172E+06  1.294172E+06  1.294172E+06  1.294172E+06  1.294172E+06  1.294172E+06  1.294172E+06
 1.294172E+06  1.294172E+06  1.294172E+06  1.294172E+06  1.294172E+06  1.294172E+06  1.294172E+06  1.294172E+06  1.294172E+06  1.294172E+06
 1.294172E+06  1.294172E+06  1.294172E+06  1.294172E+06  1.294172E+06  1.294172E+06  1.294172E+06  1.294172E+06  1.294172E+06  1.294172E+06
 1.294172E+06  1.294172E+06  1.294172E+06  1.294172E+06  1.294172E+06  1.294172E+06  1.294172E+06  1.294172E+06  1.294172E+06  1.294172E+06
 1.294172E+06  1.294172E+06  1.294172E+06  1.294172E+06  1.294172E+06  1.294172E+06  1.294172E+06  1.294172E+06  1.294172E+06  1.294172E+06
 1.294172E+06  1.294172E+06  1.294172E+06  1.294172E+06  1.294172E+06  1.294172E+06  1.294172E+06  1.294172E+06  1.294172E+06  1.294172E+06
 1.294172E+06  1.294172E+06  1.294172E+06  1.294172E+06  1.294172E+06  1.294172E+06  1.294172E+06  1.294172E+06  1.294172E+06  1.294172E+06
 1.294172E+06  1.294172E+06  1.294172E+06  1.294172E+06  1.294172E+06  1.294172E+06  1.294172E+06  1.294172E+06  1.294172E+06  1.294172E+06
 1.294172E+06  1.294172E+06  1.294172E+06  1.294172E+06  1.294172E+06  1.294172E+06  1.294172E+06  1.294172E+06  1.294172E+06  1.294172E+06
 1.294172E+06  1.294172E+06  1.294172E+06  1.294172E+06  1.294172E+06  1.294172E+06  1.294172E+06  1.294172E+06  1.294172E+06  1.294172E+06
 1.294172E+06  1.294172E+06  1.294172E+06  1.294172E+06  1.294172E+06  1.294172E+06  1.294172E+06  1.294172E+06  1.294172E+06  1.294172E+06
 1.294172E+06  1.294172E+06  1.294172E+06  1.294172E+06  1.294172E+06  1.294172E+06  1.294172E+06  1.294172E+06  1.294172E+06  1.294172E+06
 1.294172E+06  1.294172E+06  1.294172E+06  1.294172E+06  1.294172E+06  1.294172E+06  1.294172E+06  1.294172E+06  1.294172E+06  1.294172E+06
 1.294172E+06  1.294172E+06  1.294172E+06  1.294172E+06  1.294172E+06  1.294172E+06  1.294172E+06  1.294172E+06  1.294172E+06  1.294172E+06
 1.294172E+06  1.294172E+06  1.294172E+06  1.294172E+06  1.294172E+06  1.302685E+06  1.302746E+06  1.302884E+06  1.303057E+06  1.303116E+06
 1.304208E+06  1.304315E+06  1.304333E+06  1.305391E+06  1.305419E+06  1.305523E+06  1.306122E+06  1.306272E+06  1.306692E+06  1.306692E+06
 1.307396E+06  1.307536E+06  1.307963E+06  1.308069E+06  1.308112E+06  1.308251E+06  1.308427E+06  1.309131E+06  1.309181E+06  1.309367E+06
 1.310508E+06  1.310982E+06  1.311035E+06  1.311527E+06  1.312025E+06  1.312743E+06  1.312781E+06  1.313110E+06  1.313444E+06  1.313984E+06
 1.314151E+06  1.314593E+06  1.315170E+06  1.315314E+06  1.316935E+06  1.317680E+06  1.317694E+06  1.317801E+06  1.318411E+06  1.318599E+06
 1.318896E+06  1.318910E+06  1.319910E+06  1.319943E+06  1.320519E+06  1.320921E+06  1.320956E+06  1.321234E+06  1.321604E+06  1.322581E+06
 1.322786E+06  1.322962E+06  1.323209E+06  1.323578E+06  1.323914E+06  1.323940E+06  1.324224E+06  1.324779E+06  1.325464E+06  1.326255E+06
 1.326545E+06  1.326862E+06  1.328107E+06  1.328746E+06  1.329942E+06  1.330107E+06  1.331689E+06  1.332325E+06  1.332810E+06  1.333426E+06
 1.333869E+06  1.333913E+06  1.334121E+06  1.334125E+06  1.334607E+06  1.334803E+06  1.334923E+06  1.335287E+06  1.335539E+06  1.335848E+06
 1.338294E+06  1.338294E+06  1.338768E+06  1.339088E+06  1.339127E+06  1.339138E+06  1.340037E+06  1.341021E+06  1.341441E+06  1.341534E+06
 1.341617E+06  1.342862E+06  1.343267E+06  1.343474E+06  1.343536E+06  1.345147E+06  1.345579E+06  1.347337E+06  1.347906E+06  1.348397E+06
 1.348865E+06  1.349014E+06  1.349737E+06  1.349794E+06  1.351590E+06  1.352065E+06  1.352188E+06  1.352203E+06  1.352220E+06  1.352250E+06
 1.352846E+06  1.352894E+06  1.353162E+06  1.354218E+06  1.355284E+06  1.355399E+06  1.355963E+06  1.356678E+06  1.356678E+06  1.358334E+06
 1.358956E+06  1.359022E+06  1.359305E+06  1.360076E+06  1.360273E+06  1.361294E+06  1.361790E+06  1.362003E+06  1.363992E+06  1.364261E+06
 1.364599E+06  1.365493E+06  1.365739E+06  1.366051E+06  1.366489E+06  1.366951E+06  1.366977E+06  1.367266E+06  1.367295E+06  1.368589E+06
 1.368857E+06  1.369028E+06  1.369257E+06  1.369472E+06  1.369628E+06  1.369861E+06  1.370335E+06  1.372123E+06  1.372401E+06  1.372641E+06
 1.373281E+06  1.373400E+06  1.373912E+06  1.374323E+06  1.375061E+06  1.375061E+06  1.375639E+06  1.376047E+06  1.376081E+06  1.378073E+06
 1.379467E+06  1.379571E+06  1.379803E+06  1.380126E+06  1.380294E+06  1.380455E+06  1.380595E+06  1.381446E+06  1.382229E+06  1.382512E+06
 1.383055E+06  1.383860E+06  1.384207E+06  1.384360E+06  1.384916E+06  1.385501E+06  1.385513E+06  1.385536E+06  1.385932E+06  1.386130E+06
 1.386638E+06  1.386684E+06  1.386885E+06  1.387001E+06  1.387647E+06  1.388023E+06  1.388303E+06  1.388486E+06  1.388960E+06  1.389333E+06
 1.390555E+06  1.391643E+06  1.392880E+06  1.393445E+06  1.393445E+06  1.393876E+06  1.393991E+06  1.394776E+06  1.395420E+06  1.395434E+06
 1.396034E+06  1.396532E+06  1.396880E+06  1.397119E+06  1.397282E+06  1.398148E+06  1.398608E+06  1.398694E+06  1.398756E+06  1.398756E+06
 1.399100E+06  1.399324E+06  1.399488E+06  1.399910E+06  1.401199E+06  1.401351E+06  1.401484E+06  1.401557E+06  1.401570E+06  1.402774E+06
 1.403298E+06  1.403535E+06  1.403571E+06  1.403884E+06  1.403873E+06  1.402970E+06  1.402899E+06  1.402865E+06  1.402492E+06  1.402293E+06
 1.402106E+06  1.401554E+06  1.401134E+06  1.400539E+06  1.400499E+06  1.400361E+06  1.399874E+06  1.399368E+06  1.399254E+06  1.399187E+06
 1.398249E+06  1.397873E+06  1.397402E+06  1.396453E+06  1.396161E+06  1.394953E+06  1.394808E+06  1.394158E+06  1.394034E+06  1.393706E+06
 1.393445E+06  1.393445E+06  1.392835E+06  1.392590E+06  1.391973E+06  1.391876E+06  1.390852E+06  1.390724E+06  1.389529E+06  1.389438E+06
 1.389112E+06  1.388562E+06  1.388321E+06  1.387863E+06  1.387755E+06  1.387384E+06  1.387363E+06  1.386559E+06  1.386379E+06  1.386127E+06
 1.385848E+06  1.385637E+06  1.385354E+06  1.385062E+06  1.384632E+06  1.383415E+06  1.383177E+06  1.382907E+06  1.382887E+06  1.382874E+06
 1.382471E+06  1.381854E+06  1.381069E+06  1.380749E+06  1.380743E+06  1.380457E+06  1.380059E+06  1.379759E+06  1.379152E+06  1.378894E+06
 1.378583E+06  1.378394E+06  1.377221E+06  1.376412E+06  1.376170E+06  1.376150E+06  1.376064E+06  1.375359E+06  1.375061E+06  1.375061E+06
 1.374767E+06  1.372331E+06  1.370827E+06  1.370557E+06  1.370353E+06  1.369465E+06  1.369197E+06  1.369109E+06  1.369103E+06  1.368995E+06
 1.368952E+06  1.368594E+06  1.368059E+06  1.367800E+06  1.367383E+06  1.366742E+06  1.366687E+06  1.366633E+06  1.366077E+06  1.365889E+06
 1.365846E+06  1.365663E+06  1.365071E+06  1.364808E+06  1.364576E+06  1.364242E+06  1.362875E+06  1.362202E+06  1.362134E+06  1.361865E+06
 1.359194E+06  1.358536E+06  1.357837E+06  1.357601E+06  1.356678E+06  1.356678E+06  1.356243E+06  1.355382E+06  1.355365E+06  1.355052E+06
 1.354507E+06  1.354478E+06  1.353942E+06  1.353828E+06  1.353712E+06  1.353659E+06  1.353220E+06  1.353181E+06  1.352992E+06  1.352255E+06
 1.351791E+06  1.351669E+06  1.351625E+06  1.350920E+06  1.350673E+06  1.348301E+06  1.348224E+06  1.348032E+06  1.347552E+06  1.346031E+06
 1.345608E+06  1.344856E+06  1.344580E+06  1.344521E+06  1.344488E+06  1.343955E+06  1.343739E+06  1.343553E+06  1.343014E+06  1.341944E+06
 1.341740E+06  1.341384E+06  1.341245E+06  1.340427E+06  1.339996E+06  1.338294E+06  1.338294E+06  1.338114E+06  1.337711E+06  1.336334E+06
 1.336204E+06  1.336159E+06  1.335103E+06  1.334881E+06  1.334305E+06  1.334095E+06  1.334076E+06  1.334028E+06  1.333739E+06  1.333445E+06
 1.333306E+06  1.332897E+06  1.332883E+06  1.332104E+06  1.331910E+06  1.330612E+06  1.330096E+06  1.329708E+06  1.329183E+06  1.328842E+06
 1.327488E+06  1.327486E+06  1.326649E+06  1.326188E+06  1.325673E+06  1.325335E+06  1.323925E+06  1.323739E+06  1.322947E+06  1.322894E+06
 1.322438E+06  1.322082E+06  1.321953E+06  1.321294E+06  1.321182E+06  1.320606E+06  1.320166E+06  1.319914E+06  1.319910E+06  1.319539E+06
 1.318942E+06  1.318729E+06  1.318338E+06  1.318332E+06  1.318306E+06  1.317996E+06  1.317977E+06  1.316081E+06  1.315314E+06  1.315268E+06
 1.315089E+06  1.315011E+06  1.314865E+06  1.313800E+06  1.313660E+06  1.312611E+06  1.312590E+06  1.312032E+06  1.311563E+06  1.311358E+06
 1.311080E+06  1.310435E+06  1.310326E+06  1.310040E+06  1.309751E+06  1.309070E+06  1.308696E+06  1.308619E+06  1.307632E+06  1.307381E+06
 1.307367E+06  1.306483E+06  1.306122E+06  1.306092E+06  1.305929E+06  1.305840E+06  1.305178E+06  1.304774E+06  1.303339E+06  1.303280E+06
 1.302210E+06  1.302045E+06  1.294172E+06  1.294172E+06  1.294172E+06  1.294172E+06  1.294172E+06  1.294172E+06  1.294172E+06  1.294172E+06
 1.294172E+06  1.294172E+06  1.294172E+06  1.294172E+06  1.294172E+06  1.294172E+06  1.294172E+06  1.294172E+06  1.294172E+06  1.294172E+06
 1.294172E+06  1.294172E+06  1.294172E+06  1.294172E+06  1.294172E+06  1.294172E+06  1.294172E+06  1.294172E+06  1.294172E+06  1.294172E+06
 1.294172E+06  1.294172E+06  1.294172E+06  1.294172E+06  1.294172E+06  1.294172E+06  1.294172E+06  1.294172E+06  1.294172E+06  1.294172E+06
 1.294172E+06  1.294172E+06  1.294172E+06  1.294172E+06  1.294172E+06  1.294172E+06  1.294172E+06  1.294172E+06  1.294172E+06  1.294172E+06
 1.294172E+06  1.294172E+06  1.294172E+06  1.294172E+06  1.294172E+06  1.294172E+06  1.294172E+06  1.294172E+06  1.294172E+06  1.294172E+06
 1.294172E+06  1.294172E+06  1.294172E+06  1.294172E+06  1.294172E+06  1.294172E+06  1.294172E+06  1.294172E+06  1.294172E+06  1.294172E+06
 1.294172E+06  1.294172E+06  1.294172E+06  1.294172E+06  1.294172E+06  1.294172E+06  1.294172E+06  1.294172E+06  1.294172E+06  1.294172E+06
 1.294172E+06  1.294172E+06  1.294172E+06  1.294172E+06  1.294172E+06  1.294172E+06  1.294172E+06  1.294172E+06  1.294172E+06  1.294172E+06
 1.294172E+06  1.294172E+06  1.294172E+06  1.294172E+06  1.294172E+06  1.294172E+06  1.294172E+06  1.294172E+06  1.294172E+06  1.294172E+06
 1.294172E+06  1.294172E+06  1.294172E+06  1.294172E+06  1.294172E+06  1.294172E+06  1.294172E+06  1.294172E+06  1.294172E+06  1.294172E+06
 1.294172E+06  1.294172E+06  1.294172E+06  1.294172E+06  1.294172E+06  1.294172E+06  1.294172E+06  1.294172E+06  1.294172E+06  1.294172E+06
 1.294172E+06  1.294172E+06  1.294172E+06  1.294172E+06  1.294172E+06  1.294172E+06  1.294172E+06  1.294172E+06  1.294172E+06  1.294172E+06
 1.294172E+06  1.294172E+06  1.294172E+06  1.294172E+06  1.294172E+06  1.294172E+06  1.294172E+06  1.294172E+06  1.294172E+06  1.294172E+06
 1.294172E+06  1.294172E+06  1.294172E+06  1.294172E+06  1.294172E+06  1.294172E+06  1.294172E+06  1.294172E+06  1.294172E+06  1.294172E+06
 1.294172E+06  1.294172E+06  1.294172E+06  1.294172E+06  1.294172E+06  1.294172E+06  1.294172E+06  1.294172E+06  1.294172E+06  1.294172E+06
 1.294172E+06  1.294172E+06  1.294172E+06  1.294172E+06  1.294172E+06  1.294172E+06  1.294172E+06  1.294172E+06  1.294172E+06  1.294172E+06
 1.294172E+06  1.294172E+06  1.294172E+06  1.294172E+06  1.294172E+06  1.294172E+06  1.294172E+06  1.294172E+06  1.294172E+06  1.294172E+06
 1.294172E+06  1.294172E+06  1.294172E+06  1.294172E+06  1.294172E+06  1.294172E+06  1.294172E+06  1.294172E+06  1.294172E+06  1.294172E+06
 1.294172E+06  1.294172E+06  1.294172E+06  1.294172E+06  1.294172E+06  1.294172E+06  1.294172E+06  1.294172E+06  1.294172E+06  1.294172E+06
 1.294172E+06  1.294172E+06  1.294172E+06  1.294172E+06  1.294172E+06  1.294172E+06  1.294172E+06  1.294172E+06  1.294172E+06  1.294172E+06
 1.294172E+06  1.294172E+06  1.294172E+06  1.294172E+06  1.294172E+06  1.294172E+06  1.294172E+06  1.294172E+06  1.294172E+06  1.294172E+06
 1.294172E+06  1.294172E+06  1.294172E+06  1.294172E+06  1.294172E+06  1.294172E+06  1.294172E+06  1.294172E+06  1.294172E+06  1.294172E+06
 1.294172E+06  1.294172E+06  1.294172E+06  1.294172E+06  1.294172E+06  1.294172E+06  1.294172E+06  1.294172E+06  1.294172E+06  1.294172E+06
 1.294172E+06  1.294172E+06  1.294172E+06  1.294172E+06  1.294172E+06  1.294172E+06  1.294172E+06  1.294172E+06  1.294172E+06  1.294172E+06
 1.294172E+06  1.294172E+06  1.294172E+06  1.294172E+06  1.294172E+06  1.294172E+06  1.294172E+06  1.294172E+06  1.294172E+06  1.294172E+06
 1.294172E+06  1.294172E+06  1.294172E+06  1.294172E+06  1.294172E+06  1.294172E+06  1.294172E+06  1.294172E+06  1.294172E+06  1.294172E+06
 1.294172E+06  1.294172E+06  1.294172E+06  1.294172E+06  1.294172E+06  1.294172E+06  1.294172E+06  1.294172E+06  1.294172E+06  1.294172E+06
 1.294172E+06  1.294172E+06  1.294172E+06  1.294172E+06  1.294172E+06  1.294172E+06  1.294172E+06  1.294172E+06  1.294172E+06  1.294172E+06