# vtk DataFile Version 3.0
DFN - ADFNE1.5 - Alghalandis Computing @ alghalandis.net
ASCII
DATASET POLYDATA
POINTS 5 float
0.000000 120.000000 0.000000
200.000000 120.000000 0.000000
200.000000 180.000000 190.000000
0.000000 180.000000 190.000000
0.000000 120.000000 0.000000
POLYGONS 1 6
5 0 1 2 3 4
POINT_DATA 5
COLOR_SCALARS lut 4
1.000 0.000 0.500 1.000
1.000 0.000 0.500 1.000
1.000 0.000 0.500 1.000
1.000 0.000 0.500 1.000
1.000 0.000 0.500 1.000
