<?xml version="1.0" encoding="UTF-8"?>
<VTKFile type="UnstructuredGrid" version="0.1" byte_order="LittleEndian">
<UnstructuredGrid>
<Piece NumberOfPoints="22428" NumberOfCells="46136">
<PointData>
<DataArray type="Float64" Name="Color" Format="ascii">
1501029.9209967798
1500414.9980553829
1500414.966507181
1500210.2503377965
1500210.2491536892
1500210.252177858
1501030.014983591
1500414.9463037783
1501030.112822865
1503767.4792659758
1502156.040293225
1502155.9762458918
1503767.6543765967
1502155.8596481946
1503767.8399659798
1508829.680334608
1506014.9512119524
1508829.4448270735
1506014.7383889488
1508829.2110299065
1506015.0361881957
1516365.0251615944
1512286.0535454983
1516365.3515951226
1512285.7414721944
1516365.6925367073
1512286.4194418713
1526496.1078860748
1521092.617786485
1526496.5058783314
1521092.1301599424
1526496.9328147278
1521092.7061086788
1539474.1765870706
1532611.2682776945
1539474.6790974448
1532610.7029997949
1539475.1967315606
1532611.3896597878
1555623.6512956824
1547129.9391576343
1555623.0793831719
1547129.1403151618
1555622.527677197
1547130.146268152
1575316.5075173723
1565002.7755932563
1575316.808961807
1565002.1217962871
1575317.0605066875
1565003.506270562
1598881.2666790814
1586603.3740165033
1598881.214772469
1586603.0047876572
1598881.1487517909
1586602.4253929362
1626237.1559044055
1612122.4342909143
1612125.2685886528
1626228.5169393274
1612125.3486547957
1626219.6832861973
1655744.2095019252
1640930.472897225
1640940.1517808717
1655758.4521917691
1640947.2165606394
1655774.8720127882
1681829.4210406302
1669838.5444494702
1681812.0314675379
1669826.3231458948
1681795.5110153623
1669808.58102657
1692985.9183967777
1689998.1715994985
1692980.699270343
1690052.3719768843
1692979.455181977
1689959.7557302804
1681691.3675330107
1689994.011929359
1681716.8361533764
1689972.4369882334
1681741.3586172701
1690008.3834916975
1655764.7320672076
1669806.3750530775
1669805.7196195554
1655736.8613405942
1669763.4781096326
1655714.6341039224
1626197.8656934544
1640915.9525856583
1626204.279936957
1640906.0581439012
1626211.009936717
1640920.3666193408
1598852.8773035014
1612098.2114416203
1598853.9116098492
1612095.2393601665
1598854.846638214
1612097.906111158
1575292.964023929
1586577.3561973616
1575292.5664554955
1586577.0694889477
1575292.1450868857
1586577.2875593784
1555600.885174685
1564979.3208468645
1564979.786285167
1555600.9074453847
1564980.1338452622
1555600.92648314
1539453.6720383267
1547108.4557828826
1539454.190431306
1547109.2140344211
1539454.7201425221
1547107.7165282231
1526477.8125899069
1532591.5092200593
1526477.3738776005
1532591.7060279525
1526476.9433171146
1532590.872173924
1516346.675917329
1521073.2894850268
1521073.741988477
1516346.9720844026
1521074.2234570996
1516347.26494174
1501013.0737791457
1502138.9407689092
1501013.0758831888
1502139.044894098
1503750.5630887297
1501013.0777735172
1508812.0639262565
1512268.1186255992
1508811.8894602787
1512268.4172339148
1508811.7143892965
1512267.8166194682
1502138.8725337503
1503750.4692547747
1503750.3592571148
1505997.4727835788
1505997.748201012
1505997.4989649383
1500398.0962260403
1500398.0969575064
1500193.3777254059
1500193.4628124523
1500193.290849516
1500398.050849093
1499364.2347165036
1499985.8930946228
1499985.897242608
1499364.3313445037
1499985.8717270966
1499364.431194607
1496619.641016255
1498229.6809249334
1498229.5834449986
1496619.6707110764
1498229.5441672145
1496619.6831755668
1491675.5468070137
1494404.0951503925
1494403.8978162445
1491675.7127434632
1494403.9217279046
1491675.8843036105
1484640.9502470978
1488405.1666403003
1488404.886967858
1484641.1586314798
1488404.8586157192
1484641.3745246688
1475717.5022340203
1480404.995000425
1480404.679373748
1475717.2253626485
1480404.3338823274
1475716.9369476263
1465084.7629004673
1470602.8019667042
1470602.405042206
1465085.3489086619
1470602.400846944
1465085.9381915685
1452947.3102640945
1459191.8140230104
1459191.6374339382
1452947.6123486098
1459191.4597313076
1452947.9143067596
1439515.4520975363
1446380.3304927358
1446380.128838587
1439515.7380894504
1446379.743252627
1439516.0218084545
1425001.8869103983
1432381.108127458
1432381.09314532
1425002.1883902191
1432380.7234940953
1425002.4825119087
1409614.077492675
1417404.9346759133
1417404.8847185841
1409613.8094639834
1417404.4883771378
1409613.5493799765
1393755.4800565245
1401756.3149555821
1401755.9749768123
1393756.1803417366
1401756.0386058069
1393756.890239505
1378345.3217667597
1386095.4089825188
1386095.328857972
1378344.5391496122
1386095.1539640625
1378345.0680999786
1371085.7553851306
1371043.012403709
1363801.958090568
1363516.4229900779
1363460.538970385
1371077.2587420882
1500251.360083553
1500713.1240438481
1500220.7240069308
1499739.0548685286
1500002.7400546686
1499381.1649377309
1501770.262393003
1502840.1768942755
1501454.5465258986
1500854.2922535585
1498864.9718449872
1499036.5818163292
1497669.0765460427
1498246.3303329502
1496636.3034007458
1499708.2716018513
1500319.4177158428
1495093.81791207
1495745.5024289503
1493256.3706938603
1494420.3773740635
1491692.4766084745
1497244.4805220643
1505470.9359360149
1507281.6232897886
1504731.8355100485
1503364.8665621122
1500045.7454275694
1502904.3397601268
1501218.0258706314
1499237.0076612916
1497424.3185345167
1512167.8789074756
1514436.5810803736
1510616.2127432225
1508490.7914289492
1489190.8501160203
1490322.1438979295
1486797.8248452055
1488420.672633874
1484657.1498756076
1492384.586620818
1494748.0964076465
1494798.5692662694
1491825.8279728056
1497678.2123096266
1506199.194331132
1509321.9888234998
1505992.0790847854
1502736.9608672583
1499548.9114558778
1499842.8925723892
1497020.9961565419
1502965.6632138253
1520544.3624870537
1523679.095333395
1518601.0327240971
1516072.1601088683
1513060.2822900575
1516976.0926219684
1512831.7580431625
1509368.3027363208
1481110.6145970502
1482772.8194592504
1478299.4174872467
1480419.734599766
1475732.2576478657
1485391.3134386272
1471233.2254429327
1473385.499938629
1468056.1370984085
1470617.0247250495
1465099.7989155601
1476386.3626042425
1487777.3333891875
1488371.2270441889
1484303.5672280411
1491505.851800968
1494511.7956807448
1494576.0110672768
1491031.7695614651
1497204.748268249
1503433.4167269482
1508398.3573330687
1505115.1727931711
1501308.9206316331
1498820.951754124
1531457.5643469915
1535650.718178601
1529181.3869120122
1525678.4731958061
1522717.2658895587
1527236.1957949277
1521858.669776607
1517582.8541086519
1513591.5745358567
1518261.5292937392
1513481.7615850293
1508157.4680765793
1478355.0071707012
1479645.811064369
1474657.4807137707
1483309.6988976693
1459741.4006313405
1462337.5256707622
1456254.2190700644
1459205.6701158914
1452962.3281938608
1465676.268477017
1467408.2006518974
1469249.6515270004
1463449.887792729
1473085.6455565041
1453456.5534900753
1449834.7918143373
1446847.5349239802
1443105.3791254738
1446393.3026809215
1439528.7063352081
1486554.1658421345
1487101.2271579492
1482295.3300180498
1490793.4053678303
1495811.9482076375
1495061.8871855668
1491029.7289931823
1499941.6177609966
1504832.6967189978
1509336.227009538
1504134.8630422433
1500208.5521682582
1545838.6191735382
1550936.5917137074
1542885.9602099424
1538255.0500029128
1534616.9372752348
1540379.7494254322
1533285.0807096758
1528339.0358515468
1523665.065688665
1529239.7144497915
1523403.2419419233
1518342.8793785262
1511816.106128805
1517808.403396106
1512923.9435043873
1508150.4376363638
1563557.1582569538
1569671.5831845917
1559847.8708907783
1554253.415225768
1476186.814672459
1477210.9648213803
1471643.8083491535
1481591.2052135854
1454941.1689448322
1457285.8118260112
1450782.9626145784
1461350.1365755824
1464035.4822417123
1465680.133931808
1459348.0834216655
1470303.5571720127
1432767.1925945801
1436092.233736657
1428822.3070408662
1432393.785867504
1425015.2887173246
1439941.7537925304
1441899.1802462984
1444320.908877883
1437240.202996693
1448554.3887407668
1425748.2933589683
1421723.2885090779
1418532.9045228062
1414026.7545727708
1417417.888186399
1409628.1043376813
1905815.4972037263
1943304.19087403
1946357.643880023
2000000.0000000002
2000000.0000000002
2000000.0000000002
1486546.0655933057
1486482.0075042662
1481167.8532638527
1491438.7465155933
1498361.7812513222
1496996.4224017614
1492255.0360149555
1505137.277532527
1501863.3461149677
1550149.877142904
1557031.1983521911
1548277.276802194
1541976.8929715282
1536548.9896234025
1543457.70637649
1535837.3471409308
1529768.1717364325
1503710.7909745073
1510860.290100072
1509608.5977980972
1521933.559902019
1529281.299087101
1523083.1139482956
1516612.4132755913
1515711.769280272
1585052.2690503097
1592234.745018088
1580453.5228949399
1573806.0640959796
1610724.5585197064
1618776.3823615762
1605020.5498018493
1597347.4603124445
1569205.5970495471
1577354.2045389495
1566699.3402849454
1559200.8986253403
1475195.2045429545
1475637.2151678635
1469434.8628990883
1481062.4537279678
1451264.9610292015
1453060.4954918297
1446456.2477149458
1457796.0872668007
1461862.3297312874
1462918.1581619182
1456415.6692440843
1468692.2025233537
1427393.6841321634
1430036.9985371006
1422880.5278746998
1434765.1522819828
1437199.2957854795
1439525.4006022858
1432193.6814978917
1444352.844224053
1419766.7434329644
1415224.5349390875
1411957.6175467928
1402496.0220393753
1406030.8294879936
1398096.71171444
1401770.0571126868
1393771.122877123
1410599.855758126
1407156.1951077287
1386369.245052024
1390056.6662464393
1382345.3221079742
1386111.5623701646
1378364.563156356
1394488.3792484466
1373980.4342566668
1380196.7899681132
1376159.1229336753
1368869.745308494
1371091.9099969738
1363548.2187449385
1899335.3419373964
1938904.2169419574
1941700.5708233954
2000000.0000000002
2000000
1924333.0436974748
1869005.2701230287
1866736.7675768603
1837018.2233383008
1821256.9410794736
1836326.6197537102
1801914.9417274112
1703095.9933411
1695498.2913748126
1689494.0064279903
1640578.5523262944
1648463.5818714958
1633362.9694039572
1625164.4115865834
1673174.0135510291
1677451.2945232932
1663456.311795288
1656685.1946292433
1689978.487461477
1892509.9754738775
1935882.473607016
1935885.1904283592
2000000.0000000002
2000000
1919541.1866484
1891876.9746542142
1938101.1703296318
1933933.79876773
2000000.0000000002
1914773.3077156448
1861818.25159658
1903182.657828135
1886786.015547626
1890793.4918610647
1781486.944835671
1795689.3021330796
1803860.8841189565
1742571.560751348
1766038.3572928207
1762174.279301436
1815106.7937369312
1847247.723585283
1839712.1592252823
1830141.151801327
1799976.4718330717
1504519.2964657356
1498772.5376247768
1499104.641807817
1486631.463363825
1486568.1325396292
1480670.3348352339
1492788.9111758491
1492676.5199926614
1551929.7010989126
1560696.1947222154
1551393.9247622604
1543867.683640758
1533956.9876439616
1542950.3386366593
1535625.0648357486
1527669.6015909014
1514647.1152345298
1524183.4581179784
1518633.709189573
1512067.612344987
1506590.6496135257
1501931.6443593565
1508415.0773380324
1500498.7219927837
1592441.250076685
1601935.8134061217
1589072.646863701
1580244.3442423656
1620947.0046149231
1631483.9668027062
1616042.7771985908
1605945.0258536637
1571913.967262985
1582376.4978539848
1570981.283790358
1561411.968415635
1473701.4971745836
1474452.5831752105
1467578.5020431043
1480308.0684756492
1446996.2597198235
1449139.2307290882
1441983.9719619127
1454560.4595530266
1458332.4444651522
1460130.2047672942
1452505.335304552
1466138.9035518535
1441060.1875134879
1436079.2217309405
1435002.084359367
1421065.2456643113
1424220.1760756243
1416395.3590195444
1429261.8790698727
1427975.1449862167
1406054.5113614826
1413598.5923771735
1409007.0759906708
1393818.9513741247
1398153.5977832836
1390022.2347154636
1402979.484678386
1399882.563255433
1380926.023475259
1374685.3809636284
1375452.8085550254
1384640.0756029333
1368954.1986014533
1363623.6386352922
1363655.6181312667
1369589.3158376014
1696577.5850249978
1687197.7752514575
1694047.7309226731
1704500.0616558648
1727944.9094152134
1709131.871929134
1716726.1738119614
1739445.8545474042
1718144.6740165302
1748637.752464062
1671535.0359247494
1662846.9500889124
1676694.071711887
1685306.830348325
1640550.0558956412
1633330.4108569655
1648436.784799811
1656020.8793645431
1815352.3114689107
1850523.6549550446
1848636.3826849598
1815962.9890882913
1761006.5632223454
1785515.9270438992
1781030.5333130579
1753995.6640167176
1707250.09918057
1708243.602946896
1686909.6073719948
1727025.0775994128
1729378.7534257881
1657766.6608313315
1666935.5768806245
1648711.3448363023
1638194.4998807807
1680143.7647044442
1775791.9266741315
1815542.1966780897
1801003.7634972183
1803948.2366792762
1841834.851932293
1843511.021999758
1793377.7264759238
1797359.3128749107
1832592.176787599
1804052.3002485244
1802165.6821947328
1831114.7592249517
1836329.5707543832
1803361.1838545674
1782493.2614575361
1813701.537818767
1796033.211371588
1803803.6240896082
1755851.4221681196
1779793.1013889557
1771992.0238063151
1772345.1020229028
1742390.3091547794
1485898.6042221275
1486322.2403710121
1479531.3877504792
1492786.255387259
1493798.8351408015
1551205.5210399146
1561526.4480089282
1551932.2144676808
1542154.9605024732
1529998.182278691
1540454.3138386763
1532280.883007176
1521934.611080131
1512374.666445323
1521146.663827617
1513743.9976981496
1506965.358825781
1496846.1831933332
1504512.235020428
1499510.0996226422
1491154.6599542666
1596604.6011063398
1609190.279939503
1595026.1847964118
1583577.2919063822
1628704.0034118816
1644298.2918402727
1625306.9092487236
1611538.4531109312
1570596.534986262
1583623.3956133872
1571843.248078216
1560441.137719122
1469835.279722228
1471856.7577341753
1463901.951519877
1477910.460817204
1456321.4826283525
1463125.0148077332
1457347.644553472
1442076.3655172288
1444577.4524992462
1438410.575849688
1450335.410137864
1449069.7604685784
1424580.5501334537
1429881.3380805477
1422710.4727279318
1433298.2152713093
1414930.7336565326
1407279.0561053131
1408602.4306375787
1416553.714081041
1400191.245283781
1393962.9069331284
1394220.3096620946
1401384.8576329062
1386386.2021385718
1377065.154976507
1378812.1070636716
1386493.941393349
1369837.1386313394
1363756.173983347
1363874.0445898671
1371395.9779578543
1697868.0317198297
1682168.4946014835
1699456.6635918252
1716157.2141036626
1720733.8672427842
1610695.7290152449
1604992.6390170834
1618754.620675965
1625135.0834536252
1585026.879293157
1580429.6473989496
1592209.0010835032
1597320.8366771068
1563535.4932732852
1559825.1192559937
1569647.207838499
1573781.3622714884
1653522.2967442044
1646790.3712165742
1664200.1244292893
1674011.1847895999
1620915.2130020198
1616010.596159944
1631422.7702657685
1636310.9482709968
1765679.1787993428
1783859.9867718243
1780531.2321867072
1748377.624605153
1770749.494941227
1772903.8655094563
1759187.3570279723
1724925.751535136
1749371.3132553655
1759634.7464262552
1746698.285059541
1719462.517496192
1671768.9943030123
1692768.1780474393
1665479.569849362
1648008.383307551
1694652.3501680105
1723099.8693029825
1746062.0323140612
1729637.4018207237
1736378.4191993813
1764451.5626772286
1756145.9838229155
1744155.200486934
1730896.033237629
1741002.0763517923
1763067.6576916904
1766575.835624965
1754566.418818151
1718183.4182845987
1744093.2676542562
1731578.2157398227
1709777.657237591
1739969.3399260393
1482780.2363141163
1484506.7197669605
1476001.48094653
1489924.3259133198
1546007.2673036214
1558102.3684319912
1549151.0171634648
1537661.02313846
1523709.8993469486
1534654.5602564
1527303.2257515395
1517852.0447719302
1501162.0063187873
1512166.130748176
1507086.819833809
1498989.103937329
1491671.0839129523
1595236.6229943933
1612123.6494988187
1596810.5157534347
1582249.7863460544
1629355.8864616936
1650813.582703826
1630608.691028538
1611066.6433356171
1566506.9770200755
1580558.5664018418
1569187.403701285
1555806.3216938
1466404.8533125313
1459384.619467727
1462648.6979717955
1472615.913048062
1451191.2796698627
1443868.2346005158
1445843.2772157965
1454156.2570152972
1435678.678614806
1426675.089293605
1428961.5422216912
1437332.4795735956
1418571.9435619938
1410399.385735986
1412357.250511808
1420594.3079114852
1402420.0279682577
1395095.6227516464
1396072.494611772
1404164.8345725033
1387114.6423599876
1379294.903168419
1379869.1523318721
1387921.9679912273
1371718.3487351253
1364082.44147429
1364286.5779440007
1372071.2996113666
1669233.2737123126
1661723.21418089
1687156.9765295677
1690575.3895269774
1592414.1021077929
1589044.8645247552
1601913.2289296824
1605908.8361051555
1545816.867505574
1542865.0831661965
1550913.963616168
1554232.1666726065
1531437.7686322639
1529162.4805922948
1535629.3944293766
1538235.4142675076
1569180.683052063
1566675.9056720827
1577330.2772718505
1580220.2144305594
1550128.8507539092
1548257.3250500518
1557008.0914829774
1559180.5312418274
1511382.9108055767
1510244.474871179
1514000.8582978223
1520032.084836619
1518372.4186865774
1523421.5118470963
1525383.885926213
1515388.6874982256
1627384.838969475
1624843.602644998
1641873.44678153
1646322.2516199567
1596575.5347531233
1595008.8856898677
1609151.3859829558
1610940.7922854226
1707391.1120548467
1732420.251838867
1727380.0346287403
1725873.3404973946
1712229.1659885761
1728994.4183295884
1724620.345049463
1712491.7563830887
1672665.1647071077
1699353.5140410706
1676130.292316063
1694990.7260295707
1649258.6843146484
1687124.6900539317
1708973.4436223337
1705002.7177516667
1682165.3973862957
1700076.671557189
1680638.0642488298
1701701.3677897688
1706640.4419364417
1695671.12124854
1677610.6129117159
1663526.4153180877
1674696.8252779336
1683454.7139968674
1495387.3843103787
1485951.1337772415
1489244.7536271235
1476682.6940121297
1466208.7113439303
1470002.3815159437
1479442.0302613291
1537967.1579292847
1551836.2715998956
1542530.8204281547
1530630.556334123
1513031.954363596
1525133.1355406775
1518741.3063798896
1506926.124215934
1500727.8603807355
1589162.7655156767
1608408.6936356612
1593209.3108426686
1577430.9600393027
1615966.784419883
1641632.5044568826
1624500.616951792
1602214.4289323245
1556772.945503771
1572341.8948062977
1562357.7292383623
1547111.035274544
1456919.949638334
1448250.9334552225
1450818.5464489257
1460271.134812415
1439545.647372497
1430882.4318621003
1432939.6404536453
1441768.44473182
1422339.2005056874
1413857.4871532496
1415474.6052999364
1424115.6045357846
1405374.3535481356
1397082.0918628338
1398182.4032018438
1406757.2427402919
1388828.2368518466
1380587.8775033986
1381408.8592355326
1389737.6689792816
1372576.599403281
1364564.7921432094
1364862.053078764
1373152.2464059559
1500196.777886882
1500194.3917422395
1500671.9328493795
1627194.0294140591
1629291.9722976426
1649447.2366603508
1650878.927916236
1571892.2271036052
1570957.5222782365
1582351.57990184
1583548.7449102846
1522124.2710624589
1521292.7592971486
1526922.261331085
1534597.6211757173
1533264.9447641734
1540359.2830050397
1541954.845775379
1528001.4714304856
1551907.426000979
1551370.1292407273
1560673.3673120271
1561391.944798497
1535588.3848401392
1535389.8902249967
1542967.9520616697
1543331.9640642172
1501649.132222892
1501393.4958431416
1502759.2563831024
1500769.0334343421
1505305.0395643765
1504654.4603751425
1507190.9471581748
1508063.3928118702
1503215.9752508143
1512511.7721310873
1512130.0166178867
1516375.5502698189
1516992.7697734754
1505500.7395760224
1505561.2438791
1508555.6508425737
1508720.2409484808
1596192.0057291742
1597217.0631316102
1611824.8312881757
1610756.8073205003
1570572.1266637843
1571825.69368791
1583593.401869308
1582645.2436337853
1660604.3071468323
1683797.1162315763
1675327.0816100228
1683366.6614781555
1664037.7540319425
1638433.2474286945
1657247.183780508
1627543.09830837
1660480.2325442347
1651425.3304252625
1630232.0698280048
1630314.222465589
1654213.7771732993
1645993.4284193148
1630702.365493399
1631634.3934433123
1646323.391533326
1645660.1132533564
1602144.872649962
1615577.8876431915
1615448.036227918
1506340.9075367816
1494167.5148007753
1499265.7123597478
1483154.8130714784
1473244.3431457141
1476572.854403619
1487635.8254661907
1463604.2797211064
1453744.7661467006
1456794.2533941309
1466500.8338549074
1522805.6390421016
1539145.2540144778
1530951.564694059
1517968.9814308658
1510598.579573766
1574925.9132572466
1594214.7587242138
1583026.0990491048
1565854.7106259186
1591708.6030638209
1613332.7425517675
1604955.1254938808
1583800.31175431
1542895.6995242601
1558241.900857582
1550453.4393446918
1532652.130828106
1444437.2084169963
1435292.4151123413
1437758.155508607
1447121.0288638847
1425938.6817306872
1417026.4140479888
1418663.5077811517
1428096.4446305656
1408056.982997517
1399252.7669480592
1400393.2247542331
1409435.4047582746
1390601.2494339878
1382100.2133235058
1382808.789770183
1391521.5902040587
1373707.9063875605
1365226.0438334446
1365566.6551004897
1374129.2392413707
1499713.9514887296
1499678.343731814
1499039.6709567497
1498879.298374588
1500263.0380469842
1586447.0486847179
1592491.6261877702
1605738.8840478153
1594364.7239977107
1550512.514613928
1551654.0893435339
1561223.5744658932
1560044.7701030802
1512461.9859832844
1512684.4227045034
1517371.9039087263
1522354.5533254389
1522490.803277798
1528578.4538976501
1528612.1337024842
1517110.389489543
1533991.0426803047
1535143.8528004803
1542985.0861514136
1541850.4086622105
1521394.8048295563
1522104.3441805511
1528511.0711557053
1527385.4593423605
1500066.953712235
1501155.3332618661
1502823.6772932839
1502478.4012546318
1499244.7550263226
1504813.3266655004
1505303.7542922366
1508736.5739044184
1508352.603270938
1500174.2024678737
1500122.3199388492
1502950.718782
1502312.523773548
1565852.4862241775
1568851.0293494496
1580652.124785229
1575865.8522128456
1546777.2548773035
1549084.1077591782
1558489.5538961182
1555929.8326543067
1605867.4061600114
1623608.2282059079
1600380.0061732046
1630641.2719224386
1618768.6475130124
1593412.8776206824
1599054.4217214922
1611549.4935823008
1610925.5897215456
1600980.5228232658
1573718.965531449
1580905.1355544245
1587369.371073439
1583828.5955064867
1511891.7747704976
1500307.6134340037
1501044.0638882471
1492054.03470074
1480485.091746585
1484424.016275829
1492572.424372454
1469717.4351935054
1459639.1375055606
1462510.6796472457
1473223.6001276684
1449755.6007935829
1440067.5068713718
1442419.2346514429
1452291.3765295933
1514293.2278787515
1528180.4712989037
1519065.7150194782
1507596.2169774587
1553697.1549896186
1571707.347979018
1565056.7624249023
1548777.6231841561
1559398.3928877006
1581161.04563495
1575851.6407517788
1557411.9752003057
1534428.8446963443
1519812.167229289
1524900.0623632807
1538797.8391274654
1430089.1887946732
1420368.426851498
1422117.534490018
1432125.4748493978
1410876.4864998292
1401593.4781262546
1402835.834944567
1412362.2880732976
1392498.5292889674
1383573.3568055346
1384391.857089842
1393517.785765647
1374888.1948791482
1366004.296173557
1366383.1390040398
1375384.8058602381
1497685.378846559
1495175.9098665772
1495768.172478549
1497296.2370415882
1497483.3330224052
1556323.4768793376
1561862.9389242367
1570841.918513511
1565022.45364324
1530706.696633667
1532679.65765586
1540508.338241427
1538399.4235813315
1502042.5513649492
1503655.3037136327
1507322.1541491132
1510370.046023358
1511657.6761677298
1516410.1419387686
1515580.641535079
1505936.1323746932
1517859.95860136
1519925.552487487
1525877.8343795782
1524001.5966947775
1506308.8814590687
1508597.0583283568
1513873.6563056551
1511793.7434341013
1497558.947712071
1494689.620589451
1494402.8231188667
1497178.8775961127
1498103.9252554867
1494847.6643189364
1495599.742178477
1500254.7225659352
1498517.7442768095
1539852.864136462
1543872.0224734542
1552560.9922384718
1547935.6556146592
1524958.6781316434
1528229.8210651854
1535704.6389331922
1532178.7149688608
1559739.3448262971
1581554.2550219076
1560423.7402726465
1576307.7651769563
1560928.148578836
1567765.304160217
1576370.4667788907
1561043.5254707334
1543588.8843951076
1550629.850083172
1558098.7392349478
1552190.518306308
1495125.7646760908
1486743.0972425714
1488893.4916355119
1501273.5587513046
1476696.2800487203
1465614.9844275475
1468653.1618583298
1478580.383126638
1454957.281599655
1444777.9904316822
1447103.469541775
1457676.5849422484
1434177.4726953092
1423885.6826908034
1425645.6436051626
1436207.766298003
1506568.3924444567
1493691.284149714
1498267.4903301836
1511208.6470468456
1542921.3614276287
1528741.4739065426
1531472.359003315
1544983.693293162
1532789.118005974
1545948.2882499355
1546008.5419003116
1532821.7413042726
1514199.326504642
1501023.9431253416
1503165.7800443312
1516943.4800498798
1413870.4077095557
1404104.4079103286
1405375.5942954794
1415379.4571087402
1394563.3602135458
1385224.099533874
1386087.9078866842
1395616.273355452
1376071.2744387838
1366875.0978452775
1367298.0336058023
1376632.9520817508
1493286.9879512696
1488922.6083982165
1490183.08801127
1492319.6441152608
1491517.420411684
1530249.4505492442
1535616.602102595
1542925.6282752068
1536985.6604780406
1497419.269379567
1494293.4484562846
1492760.0520499947
1512676.1026769625
1515572.8058138054
1521604.7855589374
1518597.2120654013
1496537.6132114776
1499569.179518231
1503504.1784411087
1501141.9527008163
1494503.0100194786
1494520.736834092
1495638.3226273323
1500447.5762298407
1500931.2806580833
1503869.2397660848
1509352.6029543593
1506538.8748322276
1497594.3570908683
1487444.15743466
1488073.8882007245
1491158.6365015311
1491321.9550348923
1486034.1980351892
1486687.550628433
1491070.6399890427
1489251.5341876175
1516715.0338203448
1521269.546690019
1528035.1878818555
1523394.6353932065
1504959.9109490213
1509161.2605746915
1514813.387850097
1510687.1647560003
1545549.5824931818
1533022.52925455
1531907.6538094284
1546057.2525660635
1538354.574847972
1529799.366845186
1524459.030779416
1516739.2946784885
1524064.1238569345
1481020.5275318304
1470851.7052074396
1472841.3594825072
1485246.5322227664
1460183.6988876371
1449342.9128580517
1451449.1636908557
1461958.1885652286
1438177.4016712809
1427363.8613554114
1429007.492284464
1440046.6644380472
1416861.355069553
1406636.5895380334
1407856.504562862
1418290.4203594844
1488412.6808351001
1475789.370608556
1478363.9249334112
1490501.9517901733
1518587.7039256014
1504962.6623623485
1505939.2638589034
1519174.8308559011
1518786.598219503
1506140.5268740219
1505440.8282473853
1518701.6488827511
1491905.2487119483
1479798.6757320499
1480677.377116224
1493105.175327017
1396661.3285553833
1386899.8069925094
1387765.8547113964
1397685.2614126683
1377411.050819893
1367772.158881916
1368207.9560898643
1377915.0398845857
1486638.1407036812
1481095.0845251882
1482757.6622295494
1485229.8379218266
1484113.8291239683
1506630.7970197287
1512120.2142413624
1518165.5393572217
1511815.9442008804
1484791.7583835742
1485396.8615140633
1488930.9756562563
1490443.9244120966
1490751.8961083042
1484615.5381865932
1484479.1143093044
1489354.9724502985
1491584.3613364196
1496579.5026012536
1502022.3364748096
1497991.0562779887
1489818.186685338
1484623.7594405008
1484765.6238187943
1492686.78834351
1488018.699791526
1478130.7279983426
1479532.2692474031
1483017.1204118403
1481930.5507304445
1475739.1215989415
1476882.7014202387
1481105.194676529
1480131.9233464159
1506836.5380673527
1501933.48710251
1497251.1838397756
1501447.9776214575
1487641.3771456722
1489837.2549742917
1496265.71416235
1492335.4705816726
1484268.0151562467
1482007.3129129081
1476702.4788788254
1515502.68782019
1503174.2609190675
1500202.4222195612
1508696.770326892
1503462.066397904
1495678.5751224372
1490908.5922622217
1499111.9853580517
1464055.4745030454
1453362.2992191813
1455029.7382118406
1466486.6260672926
1441765.8024565482
1430538.0466655055
1431917.8553016372
1443293.3705612381
1419633.909245617
1409018.24069027
1410093.938307828
1420863.922115026
1398658.362916203
1388528.5941473588
1389291.0611742053
1399580.20621727
1467904.5710546472
1456394.793432623
1457407.6836384537
1468874.7592841513
1493877.92297727
1481699.6312886437
1482121.9056061262
1493726.422705558
1491739.434655523
1480665.669151987
1478646.5124077925
1489501.2534077961
1469376.6194135076
1458033.024051319
1458243.1773244513
1470074.200937602
1378677.456407279
1368666.4910366286
1369057.4122289538
1379160.8960608758
1478284.0625490113
1471218.660856128
1473370.8549908532
1476371.0582912853
1474535.8146865817
1495221.853083431
1487694.102155027
1484289.4616590159
1491104.3495754413
1473141.0926873581
1474433.7445221394
1479202.8337932595
1478648.5259690864
1472073.626201946
1472591.8279856353
1478500.344811323
1478275.9350860165
1473153.7159120494
1472584.945943992
1479173.127817111
1482072.4668191017
1474879.9080312753
1467393.5474842542
1469234.893653378
1472957.9649072452
1471414.5517984456
1464021.556905812
1465665.2495380824
1470060.8275153672
1468417.7412646415
1486492.144721382
1480136.969072206
1476055.0015437512
1482114.0128141718
1477672.6866516687
1471883.309609102
1467897.861153635
1472446.9587946385
1470666.5486044222
1466291.904713991
1464733.5287451157
1469119.9579042739
1486644.5512522229
1476390.0178436642
1473754.4566706636
1482501.4564543366
1479228.6432048823
1471002.0755995335
1468047.80406563
1476404.5917288326
1444579.2622678706
1433108.6015964795
1434078.8282215951
1445586.179346098
1421945.3255489038
1411055.572245103
1411881.6630150767
1422853.621906564
1400412.7163218278
1390008.097061651
1390606.3529397792
1401139.9806720724
1379779.7862195517
1369495.299577732
1369798.1289157325
1380132.2195748973
1446277.151575308
1434795.7472317307
1435233.6015959715
1446631.239078297
1469572.9489954954
1458031.05231121
1457405.2517791549
1468042.9589060987
1466620.9087526542
1456390.7699524346
1455025.4766140173
1464499.3003829906
1446630.2977508688
1435381.9527938606
1435233.289099917
1446276.536710771
1468041.408437547
1459727.6017513124
1462323.1902320532
1465661.796483355
1463435.98673884
1473219.0853914537
1465372.8721903344
1462586.4931263393
1469525.07389364